BEGIN_CFG
 Size
4
Supercell
3.9695461	0.0	0.0
0.0	3.9695461	0.0
0.0	0.0	3.9695461
 AtomData:  id type	cartes_x	cartes_y	cartes_z	fx	fy	fz
1	0	0.0	0.0	0.0	-0.0	-0.0	-0.0
2	0	0.0	1.98477305	1.98477305	0.0	0.0	-0.0
3	0	1.98477305	0.0	1.98477305	0.0	0.0	0.0
4	0	1.98477305	1.98477305	0.0	-0.0	-0.0	0.0
 Energy
	-14.94634708
 Stress: xx	yy	zz	xy	yz	xz
45.57336467	45.57336467	45.57336467	-0.0	-0.0	-0.0
 Feature   EFS_by       VASP
END_CFG

BEGIN_CFG
 Size
4
Supercell
3.90908674	0.0	0.0
0.0	3.90908674	0.0
0.0	0.0	3.90908674
 AtomData:  id type	cartes_x	cartes_y	cartes_z	fx	fy	fz
1	0	0.0	0.0	0.0	-0.0	-0.0	0.0
2	0	0.0	1.95454337	1.95454337	0.0	-0.0	-0.0
3	0	1.95454337	0.0	1.95454337	0.0	0.0	0.0
4	0	1.95454337	1.95454337	0.0	-0.0	0.0	-0.0
 Energy
	-14.82344045
 Stress: xx	yy	zz	xy	yz	xz
96.01715212	96.01715212	96.01715212	0.0	-0.0	0.0
 Feature   EFS_by       VASP
END_CFG

BEGIN_CFG
 Size
4
Supercell
3.85625476	0.0	0.0
0.0	3.85625476	0.0
0.0	0.0	3.85625476
 AtomData:  id type	cartes_x	cartes_y	cartes_z	fx	fy	fz
1	0	0.0	0.0	0.0	0.0	0.0	0.0
2	0	0.0	1.92812738	1.92812738	0.0	-0.0	-0.0
3	0	1.92812738	0.0	1.92812738	0.0	0.0	-0.0
4	0	1.92812738	1.92812738	0.0	-0.0	0.0	0.0
 Energy
	-14.64148733
 Stress: xx	yy	zz	xy	yz	xz
149.19418822	149.19418822	149.19418822	0.0	-0.0	-0.0
 Feature   EFS_by       VASP
END_CFG

BEGIN_CFG
 Size
4
Supercell
3.8107298	0.0	0.0
0.0	3.8107298	0.0
0.0	0.0	3.8107298
 AtomData:  id type	cartes_x	cartes_y	cartes_z	fx	fy	fz
1	0	0.0	0.0	0.0	-0.0	0.0	-0.0
2	0	0.0	1.9053649	1.9053649	-0.0	-0.0	0.0
3	0	1.9053649	0.0	1.9053649	0.0	0.0	-0.0
4	0	1.9053649	1.9053649	0.0	0.0	0.0	0.0
 Energy
	-14.42167142
 Stress: xx	yy	zz	xy	yz	xz
202.76862835	202.76862835	202.76862835	0.0	-0.0	-0.0
 Feature   EFS_by       VASP
END_CFG

BEGIN_CFG
 Size
4
Supercell
3.77223494	0.0	0.0
0.0	3.77223494	0.0
0.0	0.0	3.77223494
 AtomData:  id type	cartes_x	cartes_y	cartes_z	fx	fy	fz
1	0	0.0	0.0	0.0	0.0	0.0	0.0
2	0	0.0	1.88611747	1.88611747	-0.0	0.0	-0.0
3	0	1.88611747	0.0	1.88611747	-0.0	-0.0	0.0
4	0	1.88611747	1.88611747	0.0	0.0	-0.0	-0.0
 Energy
	-14.18530566
 Stress: xx	yy	zz	xy	yz	xz
254.46051	254.46051	254.46051	0.0	-0.0	-0.0
 Feature   EFS_by       VASP
END_CFG

BEGIN_CFG
 Size
4
Supercell
3.74053399	0.0	0.0
0.0	3.74053399	0.0
0.0	0.0	3.74053399
 AtomData:  id type	cartes_x	cartes_y	cartes_z	fx	fy	fz
1	0	0.0	0.0	0.0	-0.0	-0.0	-0.0
2	0	0.0	1.870266995	1.870266995	0.0	-0.0	0.0
3	0	1.870266995	0.0	1.870266995	-0.0	0.0	-0.0
4	0	1.870266995	1.870266995	0.0	0.0	0.0	-0.0
 Energy
	-13.95269422
 Stress: xx	yy	zz	xy	yz	xz
301.95376526	301.95376526	301.95376526	0.0	0.0	0.0
 Feature   EFS_by       VASP
END_CFG

BEGIN_CFG
 Size
4
Supercell
3.71542898	0.0	0.0
0.0	3.71542898	0.0
0.0	0.0	3.71542898
 AtomData:  id type	cartes_x	cartes_y	cartes_z	fx	fy	fz
1	0	0.0	0.0	0.0	-0.0	0.0	-0.0
2	0	0.0	1.85771449	1.85771449	0.0	0.0	0.0
3	0	1.85771449	0.0	1.85771449	0.0	-0.0	-0.0
4	0	1.85771449	1.85771449	0.0	-0.0	-0.0	0.0
 Energy
	-13.74227338
 Stress: xx	yy	zz	xy	yz	xz
343.03286311	343.03286311	343.03286311	0.0	-0.0	-0.0
 Feature   EFS_by       VASP
END_CFG

BEGIN_CFG
 Size
4
Supercell
3.69675817	0.0	0.0
0.0	3.69675817	0.0
0.0	0.0	3.69675817
 AtomData:  id type	cartes_x	cartes_y	cartes_z	fx	fy	fz
1	0	0.0	0.0	0.0	-0.0	-0.0	-0.0
2	0	0.0	1.8483790849999997	1.8483790849999997	0.0	0.0	-0.0
3	0	1.8483790849999997	0.0	1.8483790849999997	-0.0	0.0	0.0
4	0	1.8483790849999997	1.8483790849999997	0.0	0.0	-0.0	0.0
 Energy
	-13.56984753
 Stress: xx	yy	zz	xy	yz	xz
375.71916627	375.71916627	375.71916627	0.0	0.0	-0.0
 Feature   EFS_by       VASP
END_CFG

BEGIN_CFG
 Size
4
Supercell
3.68439434	0.0	0.0
0.0	3.68439434	0.0
0.0	0.0	3.68439434
 AtomData:  id type	cartes_x	cartes_y	cartes_z	fx	fy	fz
1	0	0.0	0.0	0.0	0.0	-0.0	-0.0
2	0	0.0	1.84219717	1.84219717	-0.0	0.0	0.0
3	0	1.84219717	0.0	1.84219717	0.0	0.0	0.0
4	0	1.84219717	1.84219717	0.0	-0.0	-0.0	0.0
 Energy
	-13.44785214
 Stress: xx	yy	zz	xy	yz	xz
398.41193653	398.41193653	398.41193653	0.0	0.0	0.0
 Feature   EFS_by       VASP
END_CFG

BEGIN_CFG
 Size
4
Supercell
3.67824342	0.0	0.0
0.0	3.67824342	0.0
0.0	0.0	3.67824342
 AtomData:  id type	cartes_x	cartes_y	cartes_z	fx	fy	fz
1	0	0.0	0.0	0.0	-0.0	-0.0	0.0
2	0	0.0	1.83912171	1.83912171	0.0	0.0	-0.0
3	0	1.83912171	0.0	1.83912171	0.0	0.0	0.0
4	0	1.83912171	1.83912171	0.0	-0.0	-0.0	0.0
 Energy
	-13.38477661
 Stress: xx	yy	zz	xy	yz	xz
410.02651022	410.02651022	410.02651022	0.0	0.0	0.0
 Feature   EFS_by       VASP
END_CFG

BEGIN_CFG
 Size
4
Supercell
3.67824342	0.0	0.0
0.0	3.67824342	0.0
0.0	0.0	3.67824342
 AtomData:  id type	cartes_x	cartes_y	cartes_z	fx	fy	fz
1	0	0.0	0.0	0.0	-0.0	-0.0	0.0
2	0	0.0	1.83912171	1.83912171	0.0	0.0	-0.0
3	0	1.83912171	0.0	1.83912171	0.0	0.0	0.0
4	0	1.83912171	1.83912171	0.0	-0.0	-0.0	0.0
 Energy
	-13.38477661
 Stress: xx	yy	zz	xy	yz	xz
410.02651022	410.02651022	410.02651022	0.0	0.0	0.0
 Feature   EFS_by       VASP
END_CFG

BEGIN_CFG
 Size
4
Supercell
3.68436363	0.0	0.0
0.0	3.68436363	0.0
0.0	0.0	3.68436363
 AtomData:  id type	cartes_x	cartes_y	cartes_z	fx	fy	fz
1	0	0.0	0.0	0.0	-0.0	-0.0	0.0
2	0	0.0	1.842181815	1.842181815	0.0	0.0	0.0
3	0	1.842181815	0.0	1.842181815	-0.0	0.0	-0.0
4	0	1.842181815	1.842181815	0.0	0.0	-0.0	0.0
 Energy
	-13.44754134
 Stress: xx	yy	zz	xy	yz	xz
398.46939314	398.46939314	398.46939314	0.0	0.0	0.0
 Feature   EFS_by       VASP
END_CFG

BEGIN_CFG
 Size
4
Supercell
3.69660413	0.0	0.0
0.0	3.69660413	0.0
0.0	0.0	3.69660413
 AtomData:  id type	cartes_x	cartes_y	cartes_z	fx	fy	fz
1	0	0.0	0.0	0.0	-0.0	0.0	-0.0
2	0	0.0	1.848302065	1.848302065	-0.0	-0.0	0.0
3	0	1.848302065	0.0	1.848302065	0.0	0.0	-0.0
4	0	1.848302065	1.848302065	0.0	0.0	0.0	0.0
 Energy
	-13.56836646
 Stress: xx	yy	zz	xy	yz	xz
375.99688142	375.99688142	375.99688142	0.0	0.0	-0.0
 Feature   EFS_by       VASP
END_CFG

BEGIN_CFG
 Size
4
Supercell
3.7149955	0.0	0.0
0.0	3.7149955	0.0
0.0	0.0	3.7149955
 AtomData:  id type	cartes_x	cartes_y	cartes_z	fx	fy	fz
1	0	0.0	0.0	0.0	0.0	-0.0	0.0
2	0	0.0	1.85749775	1.85749775	-0.0	0.0	-0.0
3	0	1.85749775	0.0	1.85749775	-0.0	-0.0	-0.0
4	0	1.85749775	1.85749775	0.0	0.0	0.0	0.0
 Energy
	-13.73842749
 Stress: xx	yy	zz	xy	yz	xz
343.77064522	343.77064522	343.77064522	-0.0	0.0	0.0
 Feature   EFS_by       VASP
END_CFG

BEGIN_CFG
 Size
4
Supercell
3.73959884	0.0	0.0
0.0	3.73959884	0.0
0.0	0.0	3.73959884
 AtomData:  id type	cartes_x	cartes_y	cartes_z	fx	fy	fz
1	0	0.0	0.0	0.0	-0.0	-0.0	0.0
2	0	0.0	1.86979942	1.86979942	0.0	0.0	-0.0
3	0	1.86979942	0.0	1.86979942	-0.0	-0.0	0.0
4	0	1.86979942	1.86979942	0.0	0.0	-0.0	-0.0
 Energy
	-13.94528212
 Stress: xx	yy	zz	xy	yz	xz
303.42724477	303.42724477	303.42724477	-0.0	0.0	0.0
 Feature   EFS_by       VASP
END_CFG

BEGIN_CFG
 Size
4
Supercell
3.77050601	0.0	0.0
0.0	3.77050601	0.0
0.0	0.0	3.77050601
 AtomData:  id type	cartes_x	cartes_y	cartes_z	fx	fy	fz
1	0	0.0	0.0	0.0	-0.0	-0.0	-0.0
2	0	0.0	1.885253005	1.885253005	0.0	0.0	-0.0
3	0	1.885253005	0.0	1.885253005	0.0	0.0	0.0
4	0	1.885253005	1.885253005	0.0	-0.0	0.0	0.0
 Energy
	-14.17353115
 Stress: xx	yy	zz	xy	yz	xz
256.93216157	256.93216157	256.93216157	-0.0	0.0	0.0
 Feature   EFS_by       VASP
END_CFG

BEGIN_CFG
 Size
4
Supercell
3.80784018	0.0	0.0
0.0	3.80784018	0.0
0.0	0.0	3.80784018
 AtomData:  id type	cartes_x	cartes_y	cartes_z	fx	fy	fz
1	0	0.0	0.0	0.0	-0.0	-0.0	-0.0
2	0	0.0	1.90392009	1.90392009	0.0	-0.0	0.0
3	0	1.90392009	0.0	1.90392009	-0.0	-0.0	0.0
4	0	1.90392009	1.90392009	0.0	0.0	0.0	-0.0
 Energy
	-14.4055943
 Stress: xx	yy	zz	xy	yz	xz
206.43707668	206.43707668	206.43707668	0.0	0.0	-0.0
 Feature   EFS_by       VASP
END_CFG

BEGIN_CFG
 Size
4
Supercell
3.85175655	0.0	0.0
0.0	3.85175655	0.0
0.0	0.0	3.85175655
 AtomData:  id type	cartes_x	cartes_y	cartes_z	fx	fy	fz
1	0	0.0	0.0	0.0	0.0	0.0	-0.0
2	0	0.0	1.925878275	1.925878275	-0.0	-0.0	0.0
3	0	1.925878275	0.0	1.925878275	-0.0	-0.0	0.0
4	0	1.925878275	1.925878275	0.0	-0.0	0.0	-0.0
 Energy
	-14.62247925
 Stress: xx	yy	zz	xy	yz	xz
154.14774208	154.14774208	154.14774208	0.0	-0.0	-0.0
 Feature   EFS_by       VASP
END_CFG

BEGIN_CFG
 Size
4
Supercell
3.90244337	0.0	0.0
0.0	3.90244337	0.0
0.0	0.0	3.90244337
 AtomData:  id type	cartes_x	cartes_y	cartes_z	fx	fy	fz
1	0	0.0	0.0	0.0	0.0	0.0	-0.0
2	0	0.0	1.951221685	1.951221685	0.0	-0.0	0.0
3	0	1.951221685	0.0	1.951221685	0.0	0.0	-0.0
4	0	1.951221685	1.951221685	0.0	-0.0	-0.0	0.0
 Energy
	-14.80458676
 Stress: xx	yy	zz	xy	yz	xz
102.21454065	102.21454065	102.21454065	-0.0	0.0	0.0
 Feature   EFS_by       VASP
END_CFG

BEGIN_CFG
 Size
4
Supercell
3.96012328	0.0	0.0
0.0	3.96012328	0.0
0.0	0.0	3.96012328
 AtomData:  id type	cartes_x	cartes_y	cartes_z	fx	fy	fz
1	0	0.0	0.0	0.0	0.0	-0.0	0.0
2	0	0.0	1.98006164	1.98006164	0.0	0.0	-0.0
3	0	1.98006164	0.0	1.98006164	-0.0	0.0	0.0
4	0	1.98006164	1.98006164	0.0	-0.0	-0.0	-0.0
 Energy
	-14.93269038
 Stress: xx	yy	zz	xy	yz	xz
52.75694777	52.75694777	52.75694777	0.0	0.0	0.0
 Feature   EFS_by       VASP
END_CFG

BEGIN_CFG
 Size
4
Supercell
4.02505487	0.0	0.0
0.0	4.02505487	0.0
0.0	0.0	4.02505487
 AtomData:  id type	cartes_x	cartes_y	cartes_z	fx	fy	fz
1	0	0.0	0.0	0.0	0.0	-0.0	-0.0
2	0	0.0	2.012527435	2.012527435	-0.0	0.0	-0.0
3	0	2.012527435	0.0	2.012527435	0.0	-0.0	0.0
4	0	2.012527435	2.012527435	0.0	0.0	0.0	-0.0
 Energy
	-14.98962023
 Stress: xx	yy	zz	xy	yz	xz
7.92341898	7.92341898	7.92341898	-0.0	-0.0	-0.0
 Feature   EFS_by       VASP
END_CFG

BEGIN_CFG
 Size
4
Supercell
4.09753456	0.0	0.0
0.0	4.09753456	0.0
0.0	0.0	4.09753456
 AtomData:  id type	cartes_x	cartes_y	cartes_z	fx	fy	fz
1	0	0.0	0.0	0.0	-0.0	0.0	-0.0
2	0	0.0	2.04876728	2.04876728	0.0	0.0	0.0
3	0	2.04876728	0.0	2.04876728	-0.0	0.0	-0.0
4	0	2.04876728	2.04876728	0.0	0.0	-0.0	-0.0
 Energy
	-14.96199328
 Stress: xx	yy	zz	xy	yz	xz
-30.62148236	-30.62148236	-30.62148236	-0.0	-0.0	0.0
 Feature   EFS_by       VASP
END_CFG

BEGIN_CFG
 Size
4
Supercell
4.17789878	0.0	0.0
0.0	4.17789878	0.0
0.0	0.0	4.17789878
 AtomData:  id type	cartes_x	cartes_y	cartes_z	fx	fy	fz
1	0	0.0	0.0	0.0	-0.0	-0.0	0.0
2	0	0.0	2.0889493899999994	2.0889493899999994	0.0	0.0	-0.0
3	0	2.0889493899999994	0.0	2.0889493899999994	0.0	-0.0	0.0
4	0	2.0889493899999994	2.0889493899999994	0.0	-0.0	-0.0	-0.0
 Energy
	-14.84028843
 Stress: xx	yy	zz	xy	yz	xz
-62.05066689	-62.05066689	-62.05066689	0.0	-0.0	-0.0
 Feature   EFS_by       VASP
END_CFG

BEGIN_CFG
 Size
4
Supercell
4.26652652	0.0	0.0
0.0	4.26652652	0.0
0.0	0.0	4.26652652
 AtomData:  id type	cartes_x	cartes_y	cartes_z	fx	fy	fz
1	0	0.0	0.0	0.0	0.0	0.0	0.0
2	0	0.0	2.13326326	2.13326326	-0.0	-0.0	-0.0
3	0	2.13326326	0.0	2.13326326	0.0	0.0	-0.0
4	0	2.13326326	2.13326326	0.0	-0.0	-0.0	0.0
 Energy
	-14.61863565
 Stress: xx	yy	zz	xy	yz	xz
-86.07915595	-86.07915595	-86.07915595	0.0	-0.0	-0.0
 Feature   EFS_by       VASP
END_CFG

BEGIN_CFG
 Size
4
Supercell
4.36384225	0.0	0.0
0.0	4.36384225	0.0
0.0	0.0	4.36384225
 AtomData:  id type	cartes_x	cartes_y	cartes_z	fx	fy	fz
1	0	0.0	0.0	0.0	0.0	-0.0	0.0
2	0	0.0	2.181921125	2.181921125	-0.0	0.0	0.0
3	0	2.181921125	0.0	2.181921125	-0.0	0.0	-0.0
4	0	2.181921125	2.181921125	0.0	0.0	-0.0	-0.0
 Energy
	-14.29622174
 Stress: xx	yy	zz	xy	yz	xz
-102.56273157	-102.56273157	-102.56273157	0.0	-0.0	-0.0
 Feature   EFS_by       VASP
END_CFG

BEGIN_CFG
 Size
4
Supercell
4.47031916	0.0	0.0
0.0	4.47031916	0.0
0.0	0.0	4.47031916
 AtomData:  id type	cartes_x	cartes_y	cartes_z	fx	fy	fz
1	0	0.0	0.0	0.0	-0.0	-0.0	-0.0
2	0	0.0	2.23515958	2.23515958	-0.0	-0.0	0.0
3	0	2.23515958	0.0	2.23515958	-0.0	0.0	-0.0
4	0	2.23515958	2.23515958	0.0	0.0	-0.0	-0.0
 Energy
	-13.87498522
 Stress: xx	yy	zz	xy	yz	xz
-112.69160589	-112.69160589	-112.69160589	0.0	0.0	-0.0
 Feature   EFS_by       VASP
END_CFG

BEGIN_CFG
 Size
4
Supercell
4.58648294	0.0	0.0
0.0	4.58648294	0.0
0.0	0.0	4.58648294
 AtomData:  id type	cartes_x	cartes_y	cartes_z	fx	fy	fz
1	0	0.0	0.0	0.0	0.0	0.0	0.0
2	0	0.0	2.29324147	2.29324147	-0.0	0.0	-0.0
3	0	2.29324147	0.0	2.29324147	-0.0	-0.0	-0.0
4	0	2.29324147	2.29324147	0.0	0.0	-0.0	0.0
 Energy
	-13.36086583
 Stress: xx	yy	zz	xy	yz	xz
-116.65119392	-116.65119392	-116.65119392	0.0	0.0	0.0
 Feature   EFS_by       VASP
END_CFG

BEGIN_CFG
 Size
8
Supercell
2.855955	0.0	0.0
0.0	2.855955	0.0
0.0	0.0	32.31144
 AtomData:  id type	cartes_x	cartes_y	cartes_z	fx	fy	fz
1	0	0.0	0.0	21.19058551512	-0.0	-0.0	0.04864848
2	0	1.4279775	1.4279775	23.236901321759998	0.0	-0.0	-0.00657131
3	0	0.0	0.0	17.166163351679998	0.0	-0.0	-0.09569473
4	0	1.4279775	1.4279775	19.178390589119996	0.0	-0.0	0.01126384
5	0	0.0	0.0	13.133049410879998	-0.0	-0.0	-0.01126384
6	0	1.4279775	1.4279775	15.145276648319998	0.0	-0.0	0.09569473
7	0	0.0	0.0	9.074538678239998	0.0	0.0	0.00657131
8	0	1.4279775	1.4279775	11.120854484879999	0.0	-0.0	-0.04864848
 Energy
	-29.01051905
 Stress: xx	yy	zz	xy	yz	xz
-8.34781399	-8.34781399	1.61893323	0.0	-0.0	0.0
 Feature   EFS_by       VASP
END_CFG

BEGIN_CFG
 Size
18
Supercell
2.831161	0.0	0.120556
1.404371	4.711268	0.323515
0.0	0.0	33.303985
 AtomData:  id type	cartes_x	cartes_y	cartes_z	fx	fy	fz
1	0	0.728824208297	2.089555717164	16.188129718668993	0.00027605	-0.02707559	-0.0064827
2	0	2.4534114319639997	3.6574138836159995	8.991644127687	-0.00182084	0.02178081	0.04276084
3	0	0.89063407874	0.534710072928	12.388165035319	-0.00035969	0.015444	0.0084469
4	0	3.9714153714749996	4.166475813552	6.646593622541	0.00047902	0.00231833	-0.01124944
5	0	2.410319775233999	1.06517058212	10.003619855259002	0.00086723	-0.00841562	-0.02036623
6	0	2.247629622127	2.612789141244	13.824257243289003	-0.00152381	-0.01752714	0.03578539
7	0	1.100739833939	1.5706849272519998	7.453974443319999	-0.00026093	-0.02326559	0.00612771
8	0	3.766218426	3.1520974117399994	11.465471639634996	0.00180981	0.01132937	-0.04250199
9	0	3.6066115815969995	4.704997302292	15.213733433118001	0.00010891	0.02719023	-0.00255766
10	0	1.6759592166809998	2.115213282692	27.24948589610199	-0.00047902	-0.00231833	0.01124944
11	0	3.39974779719	3.668899955	20.071822395909997	0.00152381	0.01752714	-0.03578539
12	0	1.832686644083	0.505250514124	23.568944783939997	-0.00086723	0.00841562	0.02036623
13	0	2.0873893798589997	4.1921333790799995	17.587360495989	-0.00027605	0.02707559	0.0064827
14	0	0.5212085094159999	1.0357110233159998	21.063843483324003	0.00035969	-0.015444	-0.0084469
15	0	3.1939631561919994	2.6242752126279996	24.904435390956003	0.00182084	-0.02178081	-0.04276084
16	0	2.0407630065589997	1.576691793952	18.682346085524994	-0.00010891	-0.02719023	0.00255766
17	0	1.881157566527	3.1295963957719994	22.430608202522993	-0.00180981	-0.01132937	0.04250199
18	0	1.7154737542169998	4.711004168992	26.321549075323	0.00026093	0.02326559	-0.00612771
 Energy
	-65.82591286
 Stress: xx	yy	zz	xy	yz	xz
-7.78273956	-0.76587025	-0.39104543	0.01190323	-0.27953588	-0.31532351
 Feature   EFS_by       VASP
END_CFG

BEGIN_CFG
 Size
20
Supercell
4.065973	0.0	0.0
-2.032987	4.500111	0.0
0.0	0.0	36.00089
 AtomData:  id type	cartes_x	cartes_y	cartes_z	fx	fy	fz
1	0	2.032988435997	0.872927031669	7.19319382734	0.0	-0.00339311	0.02594343
2	0	-2.227611000327201e-06	1.7516637066390002	5.400097499109999	-0.0	0.0137427	-0.00786056
3	0	2.0329841714939993	2.659741105329	3.5842846092899996	0.0	-0.00270765	-0.01261949
4	0	1.6336149997187022e-06	3.5944321604729996	1.7863641618000001	0.0	-0.01086763	-0.00755569
5	0	-3.975000002764961e-09	0.035775882450000004	0.10134250534999999	0.0	-0.00134467	-0.01194522
6	0	2.032984071872	3.5563612214130003	6.292811568440001	0.0	-0.00080172	0.01486831
7	0	-4.936460000770637e-07	4.4429235894120005	4.492587063989999	0.0	-0.00166898	-0.01074024
8	0	-1.0119100007921489e-07	0.9107414644020001	2.7068349173200006	0.0	-0.00717572	-0.01458341
9	0	2.032986296292	1.8334172231760002	0.7580347398399999	-0.0	0.01116554	0.02129567
10	0	1.7347780001397695e-06	2.683942702287	8.102720312299999	-0.0	0.01577437	0.00667525
11	0	2.0329864037079997	0.8666493768240001	16.34238801016	0.0	-0.01116554	-0.02129567
12	0	-1.9880900015145642e-07	1.7893251355980002	14.393587832680002	-0.0	0.00717572	0.01458341
13	0	2.032986193646	2.7572540105880003	12.607835686009999	-0.0	0.00166898	0.01074024
14	0	1.6281279997532039e-06	3.6438163785870006	10.80761118156	-0.0	0.00080172	-0.01486831
15	0	-2.03477799999921e-06	0.016123897713	8.9977024377	0.0	-0.01577437	-0.00667525
16	0	2.0329840663849996	3.6057454395270003	15.314058588199998	-0.0	0.01086763	0.00755569
17	0	2.0329885285059994	0.040325494671	13.51613814071	-0.0	0.00270765	0.01261949
18	0	1.927610999929996e-06	0.948402893361	11.700325250890002	0.0	-0.0137427	0.00786056
19	0	2.032984264003	1.8271395683310003	9.907228922660002	-0.0	0.00339311	-0.02594343
20	0	-2.960250002903564e-07	2.66429071755	16.99908024465	-0.0	0.00134467	0.01194522
 Energy
	-72.58339643
 Stress: xx	yy	zz	xy	yz	xz
-7.81416422	-6.78938739	0.64412221	7.5e-07	0.06305599	-1e-08
 Feature   EFS_by       VASP
END_CFG

BEGIN_CFG
 Size
12
Supercell
2.874208	0.0	0.184697
1.42424	6.134804	0.29253
0.0	0.0	22.456185
 AtomData:  id type	cartes_x	cartes_y	cartes_z	fx	fy	fz
1	0	2.4749098764479998	2.359764628208	6.398445676772001	0.00379172	0.00453626	-0.0590057
2	0	0.9883595172960001	0.104923552812	7.075615123538999	-0.0003314	-0.0449333	0.0051572
3	0	3.6185924867520005	3.2092386684800003	11.056985345048002	-0.00111711	-0.05048074	0.01738428
4	0	3.7980951180159996	3.9934138549759997	8.263589298094	0.00261982	-0.0083195	-0.04076902
5	0	2.301402813488	1.6749794013160002	9.098517725852	-0.0047669	-0.01314374	0.07418134
6	0	2.234168178208	5.5141826881439995	10.144869956956997	0.00089895	0.04991384	-0.01398933
7	0	2.121244647616	0.880626574984	11.902047670134003	0.00111711	0.05048074	-0.01738428
8	0	2.055709553056	4.710498824928	12.921997012679	-0.00089895	-0.04991384	0.01398933
9	0	3.2649272579200006	1.730100615256	16.56058733841	-0.00379172	-0.00453626	0.0590057
10	0	0.5642291950880001	2.414885842148	13.675818474027002	0.0047669	0.01314374	-0.07418134
11	0	1.941742016352	0.096451388488	14.695443717088	-0.00261982	0.0083195	0.04076902
12	0	1.8772782139679998	3.9849539602599995	15.698721846097	0.0003314	0.0449333	-0.0051572
 Energy
	-42.81986906
 Stress: xx	yy	zz	xy	yz	xz
-19.48580781	-1.77674518	1.96172341	-0.09072066	1.41177256	-1.38393622
 Feature   EFS_by       VASP
END_CFG

BEGIN_CFG
 Size
36
Supercell
2.855955	0.0	0.0
-1e-06	11.755012	-0.69267
0.0	0.0	35.32621
 AtomData:  id type	cartes_x	cartes_y	cartes_z	fx	fy	fz
1	0	-4.791579999999999e-07	5.632508039896	17.087703062610004	-0.0	0.00046986	-0.01505673
2	0	-9.810350000000001e-07	11.532078197420002	10.88368882722	0.0	-0.04177654	0.00893814
3	0	-2.2962300000000002e-07	2.699221120476	14.323174109560002	0.0	-0.00616811	-0.00813588
4	0	-5.588410000000001e-07	6.569182661092	10.14877310598	0.0	-0.01847792	-0.02896176
5	0	-8.1133e-07	9.537193885960003	12.880698740199998	0.0	-0.00472666	-0.03607621
6	0	-6.2336e-08	0.732760428032	16.399688777060003	-0.0	0.0040651	0.00134909
7	0	-1.46283e-07	1.7195584203960004	9.46193844212	-1e-08	0.06078865	0.01651408
8	0	-3.9650299999999996e-07	4.660897523036001	12.248142449890002	0.0	-0.005585	-0.00812826
9	0	-6.46898e-07	7.604293752776	15.00744797323	-0.0	0.00061903	-0.03759962
10	0	1.427976734044	9.003821971472	10.375388134890002	-0.0	0.01267618	0.01055652
11	0	1.4279774793939999	0.242223777272	13.974234803990003	0.0	-0.00503245	-0.00201561
12	0	1.4279772291489996	3.183856755212	16.733432270570006	-0.0	0.01006004	0.03393243
13	0	1.4279771465759996	4.1545033610880004	9.782503180210002	0.0	-0.00470174	-0.00103403
14	0	1.427976896221	7.097429390348	12.58726591641	-0.0	0.016331	-0.03124851
15	0	1.4279766451059999	10.049289228728002	15.346991198810002	0.0	-0.01269595	-0.06142279
16	0	1.42797655845	11.067931548600003	8.477098359380001	-0.0	0.00228556	0.0040713
17	0	1.427977310532	2.2271986136160002	11.90570801721	0.0	-0.0280056	-0.00960274
18	0	1.427977061756	5.151563478928002	14.661895828079999	-0.0	0.02722005	-0.00875003
19	0	-2.2515199999999998e-07	2.646664461824	26.041184123540006	0.0	-0.0029177	-0.00422526
20	0	-7.28441e-07	8.562832696292	19.856186472970002	0.0	-0.02786851	0.00830763
21	0	-9.771889999999998e-07	11.486868421268001	22.612252373759997	-0.0	0.02801758	0.00958751
22	0	-3.1174500000000004e-07	3.6645662159400008	19.1712642699	-0.0	0.01423683	0.06038188
23	0	-5.629250000000001e-07	6.617190130100002	21.93073257149	0.0	-0.01787118	0.0314185
24	0	-8.13224e-07	9.559457878688	24.735604749629996	-0.0	0.00580793	0.00120285
25	0	-8.958199999999999e-07	10.53037484984	17.784483096810003	0.0	-0.01115973	-0.03266116
26	0	-1.4606800000000003e-07	1.7170310928160002	21.236277832960003	-0.0	0.00445546	0.00402933
27	0	-4.00711e-07	4.710362613532001	24.14281261285	0.0	-0.01297643	-0.01118183
28	0	1.4279769802109996	6.110125932468	19.510279680380002	0.0	-0.00194766	0.03928124
29	0	1.427976729836	9.053287061968	22.270022971640007	-0.0	0.00536498	0.0088182
30	0	1.4279774795909996	0.23990803990800005	25.748349769509996	1e-08	-0.06178543	-0.01538685
31	0	1.4279773957019999	1.226024241576	18.811240155	0.0	-0.0029907	-0.00224805
32	0	1.427977144642	4.177237554296	21.63748746147	-0.0	0.00450705	0.03618962
33	0	1.427976892192	7.144790333696002	24.369652067080004	-0.0	0.01894664	0.02815151
34	0	1.427976812499	8.081582505012003	17.430397247860004	0.0	-0.0001721	0.01443938
35	0	1.427976562983	11.014646079204002	20.195115992690003	-0.0	0.00749296	0.00709309
36	0	1.4279773143969998	2.181765492236	23.63456733416	-0.0	0.04351452	-0.010527
 Energy
	-131.00426079
 Stress: xx	yy	zz	xy	yz	xz
-10.71633701	-6.15058557	1.40251314	5.2e-07	0.15461896	-1e-08
 Feature   EFS_by       VASP
END_CFG

BEGIN_CFG
 Size
18
Supercell
4.064629	0.0	0.0
0.0	6.302521	-0.417748
0.0	0.0	23.141577
 AtomData:  id type	cartes_x	cartes_y	cartes_z	fx	fy	fz
1	0	0.0	6.190682764855	7.632358033571	0.0	0.0189359	-0.00395109
2	0	0.0	2.3468004170389998	6.576911061193002	0.0	-0.02620618	-0.01954093
3	0	0.0	3.765768902542	9.053216122196002	0.0	-0.00102281	-0.01252332
4	0	2.0323145	4.279102935470998	6.9991627090140005	0.0	0.0135382	-0.0275221
5	0	2.0323145	0.486567226242	6.2132209612409985	0.0	-0.00542036	-0.01728593
6	0	2.0323145	1.8478928546789999	8.599692783333001	0.0	-0.01108692	-0.00614055
7	0	0.0	5.170279404871	11.557763416394	0.0	-0.03893059	-0.03358495
8	0	0.0	1.2903403344139999	10.524515570235998	0.0	0.01618985	0.01138391
9	0	0.0	2.7253802484669998	12.997973472410003	0.0	0.020254	0.01935934
10	0	2.0323145	3.2330861301429996	11.026815971773999	0.0	0.03893059	0.03358495
11	0	2.0323145	5.677985286547	9.586605915758001	0.0	-0.020254	-0.01935934
12	0	2.0323145	0.8104915955579999	12.477812653428002	0.0	-0.01618985	-0.01138391
13	0	0.0	4.124262599543	15.585416679153997	0.0	-0.0135382	0.0275221
14	0	0.0	0.25293907529299997	14.402635440330997	0.0	0.01108692	0.00614055
15	0	0.0	1.6142773087720002	16.789106426926995	0.0	0.00542036	0.01728593
16	0	2.0323145	2.2126827701589997	14.952221354596999	0.0	-0.0189359	0.00395109
17	0	2.0323145	4.637596632472	13.531363265972	0.0	0.00102281	0.01252332
18	0	2.0323145	6.056552512932999	16.007669162470997	0.0	0.02620618	0.01954093
 Energy
	-64.2196734
 Stress: xx	yy	zz	xy	yz	xz
-12.48067638	-6.04936201	1.93020894	0.0	0.7800736	0.0
 Feature   EFS_by       VASP
END_CFG

BEGIN_CFG
 Size
20
Supercell
4.04458	0.0	0.363871
1.943371	7.192744	1.059146
0.0	0.0	22.660524
 AtomData:  id type	cartes_x	cartes_y	cartes_z	fx	fy	fz
1	0	3.1022596024920004	5.488293839808001	10.838168860575	0.00016499	-0.01634145	-0.00183389
2	0	1.318867075481	1.900977504504	8.000770009364	-0.0033746	0.01779095	0.03751011
3	0	5.0398667443019995	3.6865833952480007	11.961368337930999	0.00112479	0.01013777	-0.01250247
4	0	3.261299274572	0.068129671168	9.070359672284999	-0.00059525	0.03976101	0.00661642
5	0	3.419151641379	3.6483683463760004	7.3157393930409995	0.00147359	-0.00484079	-0.01637953
6	0	1.2444943136709996	4.593149656264	8.827474094977998	0.00336893	-0.02070971	-0.03744699
7	0	3.494057505452	1.014694781568	6.4831775820769995	0.00361539	0.03551283	-0.04018662
8	0	3.178584416542	2.799574205168	9.989766904917001	-0.00111877	-0.00536523	0.01243558
9	0	3.355752296523	6.381783692232	8.020469378637	0.00368615	-0.01357729	-0.04097307
10	0	1.0778021523580001	1.0112854209120001	10.680284360706999	-0.00133767	-0.01604813	0.01486881
11	0	2.600631103477	3.6880579077679996	16.413955821363	-0.00368615	0.01357729	0.04097307
12	0	0.8344279834579998	0.07752339483199999	13.385512295083	0.00111877	0.00536523	-0.01243558
13	0	0.5189548945479998	1.862402818432	16.892101617922993	-0.00361539	-0.03551283	0.04018662
14	0	4.711889086329	5.476691943736	15.606951105021999	-0.00336893	0.02070971	0.03744699
15	0	2.935210247642	1.8658121790880002	12.694994839292999	0.00133767	0.01604813	-0.01486881
16	0	4.796293125428	2.808967928832	14.668790527715	0.00059525	-0.03976101	-0.00661642
17	0	4.961096655697999	6.383258204752	12.836927862068999	-0.00112479	-0.01013777	0.01250247
18	0	2.6941453245190004	0.976120095496	15.374509190636001	0.0033746	-0.01779095	-0.03751011
19	0	2.8541237975079996	4.581547760192	13.596256339425002	-0.00016499	0.01634145	0.00183389
20	0	2.537231758621	6.421473253624	17.118685806959	-0.00147359	0.00484079	0.01637953
 Energy
	-71.22324893
 Stress: xx	yy	zz	xy	yz	xz
-11.56774924	-14.31523128	1.51202793	0.22685847	-2.52161206	-1.18632501
 Feature   EFS_by       VASP
END_CFG

BEGIN_CFG
 Size
48
Supercell
2.84643	0.0	0.0
0.0	13.235988	-2.005897
0.0	0.0	41.989602
 AtomData:  id type	cartes_x	cartes_y	cartes_z	fx	fy	fz
1	0	0.0	1.5338921773440002	30.588286382882004	0.0	0.02031902	-0.0495929
2	0	0.0	12.469597822824001	21.940523291950008	0.0	-0.0081098	-0.00738437
3	0	0.0	10.2631850952	15.286152953176	0.0	-0.02325241	0.00858067
4	0	0.0	10.729727200224001	27.53834754267	0.0	0.03558576	0.03558842
5	0	0.0	8.605629081972001	20.779419333267	0.0	0.00484312	0.01948941
6	0	0.0	6.409143345348	14.112291358407	0.0	0.01609201	-0.01023183
7	0	0.0	6.132842095847999	29.037210928773998	0.0	0.01128363	0.02184114
8	0	0.0	3.9192819347039993	22.364146671838	0.0	-0.00519385	0.00922011
9	0	0.0	1.7251654399320002	15.730041375005001	0.0	0.0220358	-0.01776207
10	0	0.0	2.251785694488	27.856400104455997	0.0	0.0130027	-0.00923907
11	0	0.0	0.06690791933999998	21.208843675742997	0.0	-0.00952767	0.00732735
12	0	0.0	11.115291530663999	12.529895877378001	0.0	-0.01164416	0.01526975
13	0	0.0	11.634790823676001	24.716791055846997	0.0	-0.01892185	-0.0083453
14	0	0.0	9.454479464388	18.031927659725	0.0	-0.02948466	-0.03061531
15	0	0.0	7.298204659308	11.346066899576998	0.0	-0.03542445	-0.00930079
16	0	0.0	3.2662447587599996	10.325893191118002	0.0	-0.00901828	0.01761242
17	0	0.0	7.80076188768	23.522848766402	0.0	-0.00701701	0.01924901
18	0	0.0	5.578823346131999	16.871377209634996	0.0	0.00203066	-0.01591398
19	0	0.0	6.953989555380001	26.268303940433	0.0	-0.0155852	-0.0109791
20	0	0.0	4.76409534078	19.621171829867	0.0	-0.02693062	-0.02123702
21	0	0.0	2.577033627612	12.997628509687	0.0	-0.01097636	-0.02374741
22	0	0.0	3.1181208170520005	25.117343895904998	0.0	-0.03256402	-0.00187949
23	0	0.0	0.9007486913639999	18.457328249099003	0.0	-0.00129975	0.00781963
24	0	0.0	11.879722781616001	9.781509204649998	0.0	0.01877542	-0.00362322
25	0	1.4232149999999997	13.140702122388	26.609970802813	0.0	0.01097636	0.02374741
26	0	1.4232149999999997	10.953640409219998	19.986427482632998	0.0	0.02693062	0.02123702
27	0	1.4232149999999997	8.763746194620001	13.339295372067001	0.0	0.0155852	0.0109791
28	0	1.4232149999999997	9.308592404651998	25.495307954093004	0.0	-0.01609201	0.01023183
29	0	1.4232149999999997	7.112106668028001	18.828179979233003	0.0	-0.00484312	-0.01948941
30	0	1.4232149999999997	4.988008549776	12.06925176983	0.0	-0.03558576	-0.03558842
31	0	1.4232149999999997	4.602444219336	27.077703435122	0.0	0.01164416	-0.01526975
32	0	1.4232149999999997	2.4148398306599996	20.404652636757003	0.0	0.00952767	-0.00732735
33	0	1.4232149999999997	0.22996205551200002	13.757096208043999	0.0	-0.0130027	0.00923907
34	0	1.4232149999999997	0.756582310068	25.883454937495006	0.0	-0.0220358	0.01776207
35	0	1.4232149999999997	11.798453815295998	17.243452640662003	0.0	0.00519385	-0.00922011
36	0	1.4232149999999997	9.584893654152	10.570388383725998	0.0	-0.01128363	-0.02184114
37	0	1.4232149999999997	12.451490991239998	29.281706121382	0.0	0.00901828	-0.01761242
38	0	1.4232149999999997	10.138912403868	22.736222102864996	0.0	-0.00203066	0.01591398
39	0	1.4232149999999997	7.916973862320001	16.084750546098004	0.0	0.00701701	-0.01924901
40	0	1.4232149999999997	8.419531090691999	28.261532412922996	0.0	0.03542445	0.00930079
41	0	1.4232149999999997	6.263256285611999	21.575671652775004	0.0	0.02948466	0.03061531
42	0	1.4232149999999997	4.082944926323999	14.890808256653001	0.0	0.01892185	0.0083453
43	0	1.4232149999999997	5.4545506548	24.321446359324007	0.0	0.02325241	-0.00858067
44	0	1.4232149999999997	3.248137927176	17.66707602055	0.0	0.0081098	0.00738437
45	0	1.4232149999999997	0.9478555726559998	11.025209929618	0.0	-0.02031902	0.0495929
46	0	1.4232149999999997	3.8380129683839996	29.826090107850003	0.0	-0.01877542	0.00362322
47	0	1.4232149999999997	1.580999058636	23.156168063401005	0.0	0.00129975	-0.00781963
48	0	1.4232149999999997	12.599614932947999	14.490255416595	0.0	0.03256402	0.00187949
 Energy
	-175.59124152
 Stress: xx	yy	zz	xy	yz	xz
-7.66915863	-2.34094028	-0.01991511	0.0	1.61459904	0.0
 Feature   EFS_by       VASP
END_CFG

BEGIN_CFG
 Size
9
Supercell
2.857326	0.0	0.0
-1.428663	2.474517	0.0
0.0	0.0	41.993943
 AtomData:  id type	cartes_x	cartes_y	cartes_z	fx	fy	fz
1	0	1.4286644286629997	0.824838175161	14.007121681593	0.0	-0.0	-0.0087894
2	0	-1.4286630000137635e-06	1.649678824839	11.65877839509	-0.0	-0.0	-0.02967915
3	0	0.0	0.0	16.326321171654	0.0	0.0	-0.01352808
4	0	1.4286644286629997	0.824838175161	20.9969715	0.0	0.0	-0.0
5	0	-1.4286630000137635e-06	1.649678824839	18.664291954236003	0.0	0.0	0.00516223
6	0	0.0	0.0	23.329651045764003	-0.0	0.0	-0.00516223
7	0	1.4286644286629997	0.824838175161	27.986821318407	-0.0	0.0	0.0087894
8	0	-1.4286630000137635e-06	1.649678824839	25.667621828346004	-0.0	-0.0	0.01352808
9	0	0.0	0.0	30.33516460491	0.0	0.0	0.02967915
 Energy
	-33.00343133
 Stress: xx	yy	zz	xy	yz	xz
-9.67060159	-9.67060235	4.18026938	0.0	-0.0	0.0