4
Lattice="3.9695461 0.0 0.0 0.0 3.9695461 0.0 0.0 0.0 3.9695461" Properties=species:S:1:pos:R:3:forces:R:3 energy=-14.94634708 pbc="T T T"
Al       0.00000000       0.00000000       0.00000000      -0.00000000      -0.00000000      -0.00000000
Al       0.00000000       1.98477305       1.98477305       0.00000000       0.00000000      -0.00000000
Al       1.98477305       0.00000000       1.98477305       0.00000000       0.00000000       0.00000000
Al       1.98477305       1.98477305       0.00000000      -0.00000000      -0.00000000       0.00000000
4
Lattice="3.90908674 0.0 0.0 0.0 3.90908674 0.0 0.0 0.0 3.90908674" Properties=species:S:1:pos:R:3:forces:R:3 energy=-14.82344045 pbc="T T T"
Al       0.00000000       0.00000000       0.00000000      -0.00000000      -0.00000000       0.00000000
Al       0.00000000       1.95454337       1.95454337       0.00000000      -0.00000000      -0.00000000
Al       1.95454337       0.00000000       1.95454337       0.00000000       0.00000000       0.00000000
Al       1.95454337       1.95454337       0.00000000      -0.00000000       0.00000000      -0.00000000
4
Lattice="3.85625476 0.0 0.0 0.0 3.85625476 0.0 0.0 0.0 3.85625476" Properties=species:S:1:pos:R:3:forces:R:3 energy=-14.64148733 pbc="T T T"
Al       0.00000000       0.00000000       0.00000000       0.00000000       0.00000000       0.00000000
Al       0.00000000       1.92812738       1.92812738       0.00000000      -0.00000000      -0.00000000
Al       1.92812738       0.00000000       1.92812738       0.00000000       0.00000000      -0.00000000
Al       1.92812738       1.92812738       0.00000000      -0.00000000       0.00000000       0.00000000
4
Lattice="3.8107298 0.0 0.0 0.0 3.8107298 0.0 0.0 0.0 3.8107298" Properties=species:S:1:pos:R:3:forces:R:3 energy=-14.42167142 pbc="T T T"
Al       0.00000000       0.00000000       0.00000000      -0.00000000       0.00000000      -0.00000000
Al       0.00000000       1.90536490       1.90536490      -0.00000000      -0.00000000       0.00000000
Al       1.90536490       0.00000000       1.90536490       0.00000000       0.00000000      -0.00000000
Al       1.90536490       1.90536490       0.00000000       0.00000000       0.00000000       0.00000000
4
Lattice="3.77223494 0.0 0.0 0.0 3.77223494 0.0 0.0 0.0 3.77223494" Properties=species:S:1:pos:R:3:forces:R:3 energy=-14.18530566 pbc="T T T"
Al       0.00000000       0.00000000       0.00000000       0.00000000       0.00000000       0.00000000
Al       0.00000000       1.88611747       1.88611747      -0.00000000       0.00000000      -0.00000000
Al       1.88611747       0.00000000       1.88611747      -0.00000000      -0.00000000       0.00000000
Al       1.88611747       1.88611747       0.00000000       0.00000000      -0.00000000      -0.00000000
4
Lattice="3.74053399 0.0 0.0 0.0 3.74053399 0.0 0.0 0.0 3.74053399" Properties=species:S:1:pos:R:3:forces:R:3 energy=-13.95269422 pbc="T T T"
Al       0.00000000       0.00000000       0.00000000      -0.00000000      -0.00000000      -0.00000000
Al       0.00000000       1.87026699       1.87026699       0.00000000      -0.00000000       0.00000000
Al       1.87026699       0.00000000       1.87026699      -0.00000000       0.00000000      -0.00000000
Al       1.87026699       1.87026699       0.00000000       0.00000000       0.00000000      -0.00000000
4
Lattice="3.71542898 0.0 0.0 0.0 3.71542898 0.0 0.0 0.0 3.71542898" Properties=species:S:1:pos:R:3:forces:R:3 energy=-13.74227338 pbc="T T T"
Al       0.00000000       0.00000000       0.00000000      -0.00000000       0.00000000      -0.00000000
Al       0.00000000       1.85771449       1.85771449       0.00000000       0.00000000       0.00000000
Al       1.85771449       0.00000000       1.85771449       0.00000000      -0.00000000      -0.00000000
Al       1.85771449       1.85771449       0.00000000      -0.00000000      -0.00000000       0.00000000
4
Lattice="3.69675817 0.0 0.0 0.0 3.69675817 0.0 0.0 0.0 3.69675817" Properties=species:S:1:pos:R:3:forces:R:3 energy=-13.56984753 pbc="T T T"
Al       0.00000000       0.00000000       0.00000000      -0.00000000      -0.00000000      -0.00000000
Al       0.00000000       1.84837908       1.84837908       0.00000000       0.00000000      -0.00000000
Al       1.84837908       0.00000000       1.84837908      -0.00000000       0.00000000       0.00000000
Al       1.84837908       1.84837908       0.00000000       0.00000000      -0.00000000       0.00000000
4
Lattice="3.68439434 0.0 0.0 0.0 3.68439434 0.0 0.0 0.0 3.68439434" Properties=species:S:1:pos:R:3:forces:R:3 energy=-13.44785214 pbc="T T T"
Al       0.00000000       0.00000000       0.00000000       0.00000000      -0.00000000      -0.00000000
Al       0.00000000       1.84219717       1.84219717      -0.00000000       0.00000000       0.00000000
Al       1.84219717       0.00000000       1.84219717       0.00000000       0.00000000       0.00000000
Al       1.84219717       1.84219717       0.00000000      -0.00000000      -0.00000000       0.00000000
4
Lattice="3.67824342 0.0 0.0 0.0 3.67824342 0.0 0.0 0.0 3.67824342" Properties=species:S:1:pos:R:3:forces:R:3 energy=-13.38477661 pbc="T T T"
Al       0.00000000       0.00000000       0.00000000      -0.00000000      -0.00000000       0.00000000
Al       0.00000000       1.83912171       1.83912171       0.00000000       0.00000000      -0.00000000
Al       1.83912171       0.00000000       1.83912171       0.00000000       0.00000000       0.00000000
Al       1.83912171       1.83912171       0.00000000      -0.00000000      -0.00000000       0.00000000
4
Lattice="3.67824342 0.0 0.0 0.0 3.67824342 0.0 0.0 0.0 3.67824342" Properties=species:S:1:pos:R:3:forces:R:3 energy=-13.38477661 pbc="T T T"
Al       0.00000000       0.00000000       0.00000000      -0.00000000      -0.00000000       0.00000000
Al       0.00000000       1.83912171       1.83912171       0.00000000       0.00000000      -0.00000000
Al       1.83912171       0.00000000       1.83912171       0.00000000       0.00000000       0.00000000
Al       1.83912171       1.83912171       0.00000000      -0.00000000      -0.00000000       0.00000000
4
Lattice="3.68436363 0.0 0.0 0.0 3.68436363 0.0 0.0 0.0 3.68436363" Properties=species:S:1:pos:R:3:forces:R:3 energy=-13.44754134 pbc="T T T"
Al       0.00000000       0.00000000       0.00000000      -0.00000000      -0.00000000       0.00000000
Al       0.00000000       1.84218182       1.84218182       0.00000000       0.00000000       0.00000000
Al       1.84218182       0.00000000       1.84218182      -0.00000000       0.00000000      -0.00000000
Al       1.84218182       1.84218182       0.00000000       0.00000000      -0.00000000       0.00000000
4
Lattice="3.69660413 0.0 0.0 0.0 3.69660413 0.0 0.0 0.0 3.69660413" Properties=species:S:1:pos:R:3:forces:R:3 energy=-13.56836646 pbc="T T T"
Al       0.00000000       0.00000000       0.00000000      -0.00000000       0.00000000      -0.00000000
Al       0.00000000       1.84830206       1.84830206      -0.00000000      -0.00000000       0.00000000
Al       1.84830206       0.00000000       1.84830206       0.00000000       0.00000000      -0.00000000
Al       1.84830206       1.84830206       0.00000000       0.00000000       0.00000000       0.00000000
4
Lattice="3.7149955 0.0 0.0 0.0 3.7149955 0.0 0.0 0.0 3.7149955" Properties=species:S:1:pos:R:3:forces:R:3 energy=-13.73842749 pbc="T T T"
Al       0.00000000       0.00000000       0.00000000       0.00000000      -0.00000000       0.00000000
Al       0.00000000       1.85749775       1.85749775      -0.00000000       0.00000000      -0.00000000
Al       1.85749775       0.00000000       1.85749775      -0.00000000      -0.00000000      -0.00000000
Al       1.85749775       1.85749775       0.00000000       0.00000000       0.00000000       0.00000000
4
Lattice="3.73959884 0.0 0.0 0.0 3.73959884 0.0 0.0 0.0 3.73959884" Properties=species:S:1:pos:R:3:forces:R:3 energy=-13.94528212 pbc="T T T"
Al       0.00000000       0.00000000       0.00000000      -0.00000000      -0.00000000       0.00000000
Al       0.00000000       1.86979942       1.86979942       0.00000000       0.00000000      -0.00000000
Al       1.86979942       0.00000000       1.86979942      -0.00000000      -0.00000000       0.00000000
Al       1.86979942       1.86979942       0.00000000       0.00000000      -0.00000000      -0.00000000
4
Lattice="3.77050601 0.0 0.0 0.0 3.77050601 0.0 0.0 0.0 3.77050601" Properties=species:S:1:pos:R:3:forces:R:3 energy=-14.17353115 pbc="T T T"
Al       0.00000000       0.00000000       0.00000000      -0.00000000      -0.00000000      -0.00000000
Al       0.00000000       1.88525301       1.88525301       0.00000000       0.00000000      -0.00000000
Al       1.88525301       0.00000000       1.88525301       0.00000000       0.00000000       0.00000000
Al       1.88525301       1.88525301       0.00000000      -0.00000000       0.00000000       0.00000000
4
Lattice="3.80784018 0.0 0.0 0.0 3.80784018 0.0 0.0 0.0 3.80784018" Properties=species:S:1:pos:R:3:forces:R:3 energy=-14.4055943 pbc="T T T"
Al       0.00000000       0.00000000       0.00000000      -0.00000000      -0.00000000      -0.00000000
Al       0.00000000       1.90392009       1.90392009       0.00000000      -0.00000000       0.00000000
Al       1.90392009       0.00000000       1.90392009      -0.00000000      -0.00000000       0.00000000
Al       1.90392009       1.90392009       0.00000000       0.00000000       0.00000000      -0.00000000
4
Lattice="3.85175655 0.0 0.0 0.0 3.85175655 0.0 0.0 0.0 3.85175655" Properties=species:S:1:pos:R:3:forces:R:3 energy=-14.62247925 pbc="T T T"
Al       0.00000000       0.00000000       0.00000000       0.00000000       0.00000000      -0.00000000
Al       0.00000000       1.92587828       1.92587828      -0.00000000      -0.00000000       0.00000000
Al       1.92587828       0.00000000       1.92587828      -0.00000000      -0.00000000       0.00000000
Al       1.92587828       1.92587828       0.00000000      -0.00000000       0.00000000      -0.00000000
4
Lattice="3.90244337 0.0 0.0 0.0 3.90244337 0.0 0.0 0.0 3.90244337" Properties=species:S:1:pos:R:3:forces:R:3 energy=-14.80458676 pbc="T T T"
Al       0.00000000       0.00000000       0.00000000       0.00000000       0.00000000      -0.00000000
Al       0.00000000       1.95122168       1.95122168       0.00000000      -0.00000000       0.00000000
Al       1.95122168       0.00000000       1.95122168       0.00000000       0.00000000      -0.00000000
Al       1.95122168       1.95122168       0.00000000      -0.00000000      -0.00000000       0.00000000
4
Lattice="3.96012328 0.0 0.0 0.0 3.96012328 0.0 0.0 0.0 3.96012328" Properties=species:S:1:pos:R:3:forces:R:3 energy=-14.93269038 pbc="T T T"
Al       0.00000000       0.00000000       0.00000000       0.00000000      -0.00000000       0.00000000
Al       0.00000000       1.98006164       1.98006164       0.00000000       0.00000000      -0.00000000
Al       1.98006164       0.00000000       1.98006164      -0.00000000       0.00000000       0.00000000
Al       1.98006164       1.98006164       0.00000000      -0.00000000      -0.00000000      -0.00000000
4
Lattice="4.02505487 0.0 0.0 0.0 4.02505487 0.0 0.0 0.0 4.02505487" Properties=species:S:1:pos:R:3:forces:R:3 energy=-14.98962023 pbc="T T T"
Al       0.00000000       0.00000000       0.00000000       0.00000000      -0.00000000      -0.00000000
Al       0.00000000       2.01252743       2.01252743      -0.00000000       0.00000000      -0.00000000
Al       2.01252743       0.00000000       2.01252743       0.00000000      -0.00000000       0.00000000
Al       2.01252743       2.01252743       0.00000000       0.00000000       0.00000000      -0.00000000
4
Lattice="4.09753456 0.0 0.0 0.0 4.09753456 0.0 0.0 0.0 4.09753456" Properties=species:S:1:pos:R:3:forces:R:3 energy=-14.96199328 pbc="T T T"
Al       0.00000000       0.00000000       0.00000000      -0.00000000       0.00000000      -0.00000000
Al       0.00000000       2.04876728       2.04876728       0.00000000       0.00000000       0.00000000
Al       2.04876728       0.00000000       2.04876728      -0.00000000       0.00000000      -0.00000000
Al       2.04876728       2.04876728       0.00000000       0.00000000      -0.00000000      -0.00000000
4
Lattice="4.17789878 0.0 0.0 0.0 4.17789878 0.0 0.0 0.0 4.17789878" Properties=species:S:1:pos:R:3:forces:R:3 energy=-14.84028843 pbc="T T T"
Al       0.00000000       0.00000000       0.00000000      -0.00000000      -0.00000000       0.00000000
Al       0.00000000       2.08894939       2.08894939       0.00000000       0.00000000      -0.00000000
Al       2.08894939       0.00000000       2.08894939       0.00000000      -0.00000000       0.00000000
Al       2.08894939       2.08894939       0.00000000      -0.00000000      -0.00000000      -0.00000000
4
Lattice="4.26652652 0.0 0.0 0.0 4.26652652 0.0 0.0 0.0 4.26652652" Properties=species:S:1:pos:R:3:forces:R:3 energy=-14.61863565 pbc="T T T"
Al       0.00000000       0.00000000       0.00000000       0.00000000       0.00000000       0.00000000
Al       0.00000000       2.13326326       2.13326326      -0.00000000      -0.00000000      -0.00000000
Al       2.13326326       0.00000000       2.13326326       0.00000000       0.00000000      -0.00000000
Al       2.13326326       2.13326326       0.00000000      -0.00000000      -0.00000000       0.00000000
4
Lattice="4.36384225 0.0 0.0 0.0 4.36384225 0.0 0.0 0.0 4.36384225" Properties=species:S:1:pos:R:3:forces:R:3 energy=-14.29622174 pbc="T T T"
Al       0.00000000       0.00000000       0.00000000       0.00000000      -0.00000000       0.00000000
Al       0.00000000       2.18192113       2.18192113      -0.00000000       0.00000000       0.00000000
Al       2.18192113       0.00000000       2.18192113      -0.00000000       0.00000000      -0.00000000
Al       2.18192113       2.18192113       0.00000000       0.00000000      -0.00000000      -0.00000000
4
Lattice="4.47031916 0.0 0.0 0.0 4.47031916 0.0 0.0 0.0 4.47031916" Properties=species:S:1:pos:R:3:forces:R:3 energy=-13.87498522 pbc="T T T"
Al       0.00000000       0.00000000       0.00000000      -0.00000000      -0.00000000      -0.00000000
Al       0.00000000       2.23515958       2.23515958      -0.00000000      -0.00000000       0.00000000
Al       2.23515958       0.00000000       2.23515958      -0.00000000       0.00000000      -0.00000000
Al       2.23515958       2.23515958       0.00000000       0.00000000      -0.00000000      -0.00000000
4
Lattice="4.58648294 0.0 0.0 0.0 4.58648294 0.0 0.0 0.0 4.58648294" Properties=species:S:1:pos:R:3:forces:R:3 energy=-13.36086583 pbc="T T T"
Al       0.00000000       0.00000000       0.00000000       0.00000000       0.00000000       0.00000000
Al       0.00000000       2.29324147       2.29324147      -0.00000000       0.00000000      -0.00000000
Al       2.29324147       0.00000000       2.29324147      -0.00000000      -0.00000000      -0.00000000
Al       2.29324147       2.29324147       0.00000000       0.00000000      -0.00000000       0.00000000
8
Lattice="2.855955 0.0 0.0 0.0 2.855955 0.0 0.0 0.0 32.31144" Properties=species:S:1:pos:R:3:forces:R:3 energy=-29.01051905 pbc="T T T"
Al       0.00000000       0.00000000      21.19058552      -0.00000000      -0.00000000       0.04864848
Al       1.42797750       1.42797750      23.23690132       0.00000000      -0.00000000      -0.00657131
Al       0.00000000       0.00000000      17.16616335       0.00000000      -0.00000000      -0.09569473
Al       1.42797750       1.42797750      19.17839059       0.00000000      -0.00000000       0.01126384
Al       0.00000000       0.00000000      13.13304941      -0.00000000      -0.00000000      -0.01126384
Al       1.42797750       1.42797750      15.14527665       0.00000000      -0.00000000       0.09569473
Al       0.00000000       0.00000000       9.07453868       0.00000000       0.00000000       0.00657131
Al       1.42797750       1.42797750      11.12085448       0.00000000      -0.00000000      -0.04864848
18
Lattice="2.831161 0.0 0.120556 1.404371 4.711268 0.323515 0.0 0.0 33.303985" Properties=species:S:1:pos:R:3:forces:R:3 energy=-65.82591286 pbc="T T T"
Al       0.72882421       2.08955572      16.18812972       0.00027605      -0.02707559      -0.00648270
Al       2.45341143       3.65741388       8.99164413      -0.00182084       0.02178081       0.04276084
Al       0.89063408       0.53471007      12.38816504      -0.00035969       0.01544400       0.00844690
Al       3.97141537       4.16647581       6.64659362       0.00047902       0.00231833      -0.01124944
Al       2.41031978       1.06517058      10.00361986       0.00086723      -0.00841562      -0.02036623
Al       2.24762962       2.61278914      13.82425724      -0.00152381      -0.01752714       0.03578539
Al       1.10073983       1.57068493       7.45397444      -0.00026093      -0.02326559       0.00612771
Al       3.76621843       3.15209741      11.46547164       0.00180981       0.01132937      -0.04250199
Al       3.60661158       4.70499730      15.21373343       0.00010891       0.02719023      -0.00255766
Al       1.67595922       2.11521328      27.24948590      -0.00047902      -0.00231833       0.01124944
Al       3.39974780       3.66889996      20.07182240       0.00152381       0.01752714      -0.03578539
Al       1.83268664       0.50525051      23.56894478      -0.00086723       0.00841562       0.02036623
Al       2.08738938       4.19213338      17.58736050      -0.00027605       0.02707559       0.00648270
Al       0.52120851       1.03571102      21.06384348       0.00035969      -0.01544400      -0.00844690
Al       3.19396316       2.62427521      24.90443539       0.00182084      -0.02178081      -0.04276084
Al       2.04076301       1.57669179      18.68234609      -0.00010891      -0.02719023       0.00255766
Al       1.88115757       3.12959640      22.43060820      -0.00180981      -0.01132937       0.04250199
Al       1.71547375       4.71100417      26.32154908       0.00026093       0.02326559      -0.00612771
20
Lattice="4.065973 0.0 0.0 -2.032987 4.500111 0.0 0.0 0.0 36.00089" Properties=species:S:1:pos:R:3:forces:R:3 energy=-72.58339643 pbc="T T T"
Al       2.03298844       0.87292703       7.19319383       0.00000000      -0.00339311       0.02594343
Al      -0.00000223       1.75166371       5.40009750      -0.00000000       0.01374270      -0.00786056
Al       2.03298417       2.65974111       3.58428461       0.00000000      -0.00270765      -0.01261949
Al       0.00000163       3.59443216       1.78636416       0.00000000      -0.01086763      -0.00755569
Al      -0.00000000       0.03577588       0.10134251       0.00000000      -0.00134467      -0.01194522
Al       2.03298407       3.55636122       6.29281157       0.00000000      -0.00080172       0.01486831
Al      -0.00000049       4.44292359       4.49258706       0.00000000      -0.00166898      -0.01074024
Al      -0.00000010       0.91074146       2.70683492       0.00000000      -0.00717572      -0.01458341
Al       2.03298630       1.83341722       0.75803474      -0.00000000       0.01116554       0.02129567
Al       0.00000173       2.68394270       8.10272031      -0.00000000       0.01577437       0.00667525
Al       2.03298640       0.86664938      16.34238801       0.00000000      -0.01116554      -0.02129567
Al      -0.00000020       1.78932514      14.39358783      -0.00000000       0.00717572       0.01458341
Al       2.03298619       2.75725401      12.60783569      -0.00000000       0.00166898       0.01074024
Al       0.00000163       3.64381638      10.80761118      -0.00000000       0.00080172      -0.01486831
Al      -0.00000203       0.01612390       8.99770244       0.00000000      -0.01577437      -0.00667525
Al       2.03298407       3.60574544      15.31405859      -0.00000000       0.01086763       0.00755569
Al       2.03298853       0.04032549      13.51613814      -0.00000000       0.00270765       0.01261949
Al       0.00000193       0.94840289      11.70032525       0.00000000      -0.01374270       0.00786056
Al       2.03298426       1.82713957       9.90722892      -0.00000000       0.00339311      -0.02594343
Al      -0.00000030       2.66429072      16.99908024      -0.00000000       0.00134467       0.01194522
12
Lattice="2.874208 0.0 0.184697 1.42424 6.134804 0.29253 0.0 0.0 22.456185" Properties=species:S:1:pos:R:3:forces:R:3 energy=-42.81986906 pbc="T T T"
Al       2.47490988       2.35976463       6.39844568       0.00379172       0.00453626      -0.05900570
Al       0.98835952       0.10492355       7.07561512      -0.00033140      -0.04493330       0.00515720
Al       3.61859249       3.20923867      11.05698535      -0.00111711      -0.05048074       0.01738428
Al       3.79809512       3.99341385       8.26358930       0.00261982      -0.00831950      -0.04076902
Al       2.30140281       1.67497940       9.09851773      -0.00476690      -0.01314374       0.07418134
Al       2.23416818       5.51418269      10.14486996       0.00089895       0.04991384      -0.01398933
Al       2.12124465       0.88062657      11.90204767       0.00111711       0.05048074      -0.01738428
Al       2.05570955       4.71049882      12.92199701      -0.00089895      -0.04991384       0.01398933
Al       3.26492726       1.73010062      16.56058734      -0.00379172      -0.00453626       0.05900570
Al       0.56422920       2.41488584      13.67581847       0.00476690       0.01314374      -0.07418134
Al       1.94174202       0.09645139      14.69544372      -0.00261982       0.00831950       0.04076902
Al       1.87727821       3.98495396      15.69872185       0.00033140       0.04493330      -0.00515720
36
Lattice="2.855955 0.0 0.0 -1e-06 11.755012 -0.69267 0.0 0.0 35.32621" Properties=species:S:1:pos:R:3:forces:R:3 energy=-131.00426079 pbc="T T T"
Al      -0.00000048       5.63250804      17.08770306      -0.00000000       0.00046986      -0.01505673
Al      -0.00000098      11.53207820      10.88368883       0.00000000      -0.04177654       0.00893814
Al      -0.00000023       2.69922112      14.32317411       0.00000000      -0.00616811      -0.00813588
Al      -0.00000056       6.56918266      10.14877311       0.00000000      -0.01847792      -0.02896176
Al      -0.00000081       9.53719389      12.88069874       0.00000000      -0.00472666      -0.03607621
Al      -0.00000006       0.73276043      16.39968878      -0.00000000       0.00406510       0.00134909
Al      -0.00000015       1.71955842       9.46193844      -0.00000001       0.06078865       0.01651408
Al      -0.00000040       4.66089752      12.24814245       0.00000000      -0.00558500      -0.00812826
Al      -0.00000065       7.60429375      15.00744797      -0.00000000       0.00061903      -0.03759962
Al       1.42797673       9.00382197      10.37538813      -0.00000000       0.01267618       0.01055652
Al       1.42797748       0.24222378      13.97423480       0.00000000      -0.00503245      -0.00201561
Al       1.42797723       3.18385676      16.73343227      -0.00000000       0.01006004       0.03393243
Al       1.42797715       4.15450336       9.78250318       0.00000000      -0.00470174      -0.00103403
Al       1.42797690       7.09742939      12.58726592      -0.00000000       0.01633100      -0.03124851
Al       1.42797665      10.04928923      15.34699120       0.00000000      -0.01269595      -0.06142279
Al       1.42797656      11.06793155       8.47709836      -0.00000000       0.00228556       0.00407130
Al       1.42797731       2.22719861      11.90570802       0.00000000      -0.02800560      -0.00960274
Al       1.42797706       5.15156348      14.66189583      -0.00000000       0.02722005      -0.00875003
Al      -0.00000023       2.64666446      26.04118412       0.00000000      -0.00291770      -0.00422526
Al      -0.00000073       8.56283270      19.85618647       0.00000000      -0.02786851       0.00830763
Al      -0.00000098      11.48686842      22.61225237      -0.00000000       0.02801758       0.00958751
Al      -0.00000031       3.66456622      19.17126427      -0.00000000       0.01423683       0.06038188
Al      -0.00000056       6.61719013      21.93073257       0.00000000      -0.01787118       0.03141850
Al      -0.00000081       9.55945788      24.73560475      -0.00000000       0.00580793       0.00120285
Al      -0.00000090      10.53037485      17.78448310       0.00000000      -0.01115973      -0.03266116
Al      -0.00000015       1.71703109      21.23627783      -0.00000000       0.00445546       0.00402933
Al      -0.00000040       4.71036261      24.14281261       0.00000000      -0.01297643      -0.01118183
Al       1.42797698       6.11012593      19.51027968       0.00000000      -0.00194766       0.03928124
Al       1.42797673       9.05328706      22.27002297      -0.00000000       0.00536498       0.00881820
Al       1.42797748       0.23990804      25.74834977       0.00000001      -0.06178543      -0.01538685
Al       1.42797740       1.22602424      18.81124016       0.00000000      -0.00299070      -0.00224805
Al       1.42797714       4.17723755      21.63748746      -0.00000000       0.00450705       0.03618962
Al       1.42797689       7.14479033      24.36965207      -0.00000000       0.01894664       0.02815151
Al       1.42797681       8.08158251      17.43039725       0.00000000      -0.00017210       0.01443938
Al       1.42797656      11.01464608      20.19511599      -0.00000000       0.00749296       0.00709309
Al       1.42797731       2.18176549      23.63456733      -0.00000000       0.04351452      -0.01052700
18
Lattice="4.064629 0.0 0.0 0.0 6.302521 -0.417748 0.0 0.0 23.141577" Properties=species:S:1:pos:R:3:forces:R:3 energy=-64.2196734 pbc="T T T"
Al       0.00000000       6.19068276       7.63235803       0.00000000       0.01893590      -0.00395109
Al       0.00000000       2.34680042       6.57691106       0.00000000      -0.02620618      -0.01954093
Al       0.00000000       3.76576890       9.05321612       0.00000000      -0.00102281      -0.01252332
Al       2.03231450       4.27910294       6.99916271       0.00000000       0.01353820      -0.02752210
Al       2.03231450       0.48656723       6.21322096       0.00000000      -0.00542036      -0.01728593
Al       2.03231450       1.84789285       8.59969278       0.00000000      -0.01108692      -0.00614055
Al       0.00000000       5.17027940      11.55776342       0.00000000      -0.03893059      -0.03358495
Al       0.00000000       1.29034033      10.52451557       0.00000000       0.01618985       0.01138391
Al       0.00000000       2.72538025      12.99797347       0.00000000       0.02025400       0.01935934
Al       2.03231450       3.23308613      11.02681597       0.00000000       0.03893059       0.03358495
Al       2.03231450       5.67798529       9.58660592       0.00000000      -0.02025400      -0.01935934
Al       2.03231450       0.81049160      12.47781265       0.00000000      -0.01618985      -0.01138391
Al       0.00000000       4.12426260      15.58541668       0.00000000      -0.01353820       0.02752210
Al       0.00000000       0.25293908      14.40263544       0.00000000       0.01108692       0.00614055
Al       0.00000000       1.61427731      16.78910643       0.00000000       0.00542036       0.01728593
Al       2.03231450       2.21268277      14.95222135       0.00000000      -0.01893590       0.00395109
Al       2.03231450       4.63759663      13.53136327       0.00000000       0.00102281       0.01252332
Al       2.03231450       6.05655251      16.00766916       0.00000000       0.02620618       0.01954093
20
Lattice="4.04458 0.0 0.363871 1.943371 7.192744 1.059146 0.0 0.0 22.660524" Properties=species:S:1:pos:R:3:forces:R:3 energy=-71.22324893 pbc="T T T"
Al       3.10225960       5.48829384      10.83816886       0.00016499      -0.01634145      -0.00183389
Al       1.31886708       1.90097750       8.00077001      -0.00337460       0.01779095       0.03751011
Al       5.03986674       3.68658340      11.96136834       0.00112479       0.01013777      -0.01250247
Al       3.26129927       0.06812967       9.07035967      -0.00059525       0.03976101       0.00661642
Al       3.41915164       3.64836835       7.31573939       0.00147359      -0.00484079      -0.01637953
Al       1.24449431       4.59314966       8.82747409       0.00336893      -0.02070971      -0.03744699
Al       3.49405751       1.01469478       6.48317758       0.00361539       0.03551283      -0.04018662
Al       3.17858442       2.79957421       9.98976690      -0.00111877      -0.00536523       0.01243558
Al       3.35575230       6.38178369       8.02046938       0.00368615      -0.01357729      -0.04097307
Al       1.07780215       1.01128542      10.68028436      -0.00133767      -0.01604813       0.01486881
Al       2.60063110       3.68805791      16.41395582      -0.00368615       0.01357729       0.04097307
Al       0.83442798       0.07752339      13.38551230       0.00111877       0.00536523      -0.01243558
Al       0.51895489       1.86240282      16.89210162      -0.00361539      -0.03551283       0.04018662
Al       4.71188909       5.47669194      15.60695111      -0.00336893       0.02070971       0.03744699
Al       2.93521025       1.86581218      12.69499484       0.00133767       0.01604813      -0.01486881
Al       4.79629313       2.80896793      14.66879053       0.00059525      -0.03976101      -0.00661642
Al       4.96109666       6.38325820      12.83692786      -0.00112479      -0.01013777       0.01250247
Al       2.69414532       0.97612010      15.37450919       0.00337460      -0.01779095      -0.03751011
Al       2.85412380       4.58154776      13.59625634      -0.00016499       0.01634145       0.00183389